# p  POINT_DATA 266
# x  y  z  p
0 0.174096 0 0
0.00152685 0.174083 0.00175587 0
