# Probe 0 (0.02872 0.007 0)
# Probe 1 (0.02872 0.035 0)
# Probe 2 (0.02872 0.042 0)
# Probe 3 (0.02872 0.049 0)
# Probe 4 (0.02872 0.056 0)
# Probe 5 (0.02872 0.063 0)
# Probe 6 (0.02872 0.07000000000000001 0)
# Probe 7 (0.02872 0.077 0)
#                 Probe                       0                       1                       2                       3                       4                       5                       6                       7
#                  Time
  0       1       2       3       4       5       6        7        8
  1       1       2       3       4       5       6        7        8
