# Probe 0 (0.02872 0.007 0)
# Probe 1 (0.02872 0.035 0)
# Probe 2 (0.02872 0.042 0)
# Probe 3 (0.02872 0.049 0)
# Probe 4 (0.02872 0.056 0)
# Probe 5 (0.02872 0.063 0)
# Probe 6 (0.02872 0.07000000000000001 0)
# Probe 7 (0.02872 0.077 0)
#                 Probe                       0                       1                       2                       3                       4                       5                       6                       7
#                  Time
  3.114287268361441e-05       19.03022883160302       19.12131603544884       19.20356054004439       19.57675338413888       19.94995687498271       20.32316036581581        20.7092329420902        21.0824364323876
  0.0002235808884936742       19.03023373635916       19.12132524403025       19.20362574969323       19.57675340846762       19.94995689826343       20.32316038863262       20.70923296406997       21.08243645367166
  0.0007185805127021203       19.03024602724491       19.12134851467028       19.20378912731481       19.57675347095773       19.94995695803283       20.32316044727694       20.70923301997369       21.08243650839362
   0.001217581560406308       19.03025798312363       19.12137141199199       19.20394800340037       19.57675353400392       19.94995701846931       20.32316050598537       20.70923307680093       21.08243656329344
   0.001716582608110495       19.03026953007276       19.12139377280022       19.20410139122498       19.57675359746718       19.94995707937273       20.32316056443742       20.70923313332033       21.08243661831184
   0.002215583655814683       19.03028069221725       19.12141562169961       19.20424962204781       19.57675366051337       19.94995714040956       20.32316062333812       20.70923319014757       21.08243667321166
   0.002714584703518871       19.03029149264593       19.12143698307482       19.20439300309299       19.57675372397663       19.94995720171322       20.32316068172609       20.70923324691324       21.08243672793362
   0.003213585751223058       19.03030195267151       19.12145787911373       19.20453182168677        19.5767537875094       19.94995726254993       20.32316073998587       20.70923330337107       21.08243678265558
   0.003712586798927246       19.03031209279258       19.12147833149141       19.20466634352042       19.57675385090314        19.9499573229864       20.32316079856611       20.70923336007517       21.08243683714039
   0.004211587846631431       19.03032193121368       19.12149835990584       19.20479681729412        19.5767539144359       19.94995738382312       20.32316085740271       20.70923341659457       21.08243689168449
   0.004710588894335614       19.03033148525125       19.12151798361548       19.20492347355931       19.57675397796866       19.94995744459312       20.32316091585477       20.70923347329867       21.08243694640646
   0.005209589942039799       19.03034077214764       19.12153721938925       19.20504652733145       19.57675404157092       19.94995750529641       20.32316097417864        20.7092335295718       21.08243700142484
   0.005708590989743987        19.0303498061112       19.12155608450838       19.20516617954231       19.57675410503416       19.94995756573288       20.32316103288707       20.70923358615277        21.0824370566211
   0.006207592037448174       19.03035860009224       19.12157459398423       19.20528261762183        19.5767541678718       19.94995762643618       20.32316109165958       20.70923364273374       21.08243711187664
   0.006706593085152362       19.03036716770698       19.12159276290122       19.20539601571728       19.57675423084847       19.94995768707278       20.32316115030391       20.70923369913001       21.08243716671716
    0.00720559413285655       19.03037552109162       19.12161060612394       19.20550653687001        19.5767542942422       19.94995774777608       20.32316120920461       20.70923375552627       21.08243722191342
   0.007704595180560737       19.03038367149434       19.12162813602757        19.2056143342493       19.57675435784446       19.94995780814584       20.32316126791304       20.70923381192252       21.08243727693182
   0.008203596228264921        19.0303916288313       19.12164536630499       19.20571954926839       19.57675442102967       19.94995786904926       20.32316132649328       20.70923386831878        21.0824373320095
   0.008702597275969105       19.03039940420256       19.12166230837931       19.20582231535582       19.57675448414535       19.94995793001939       20.32316138475306       20.70923392502288       21.08243738708718
   0.009201598323673293       19.03040700634026       19.12167897308783       19.20592275723131       19.57675454726104       19.94995799092281       20.32316144333329       20.70923398141913       21.08243744180914
   0.009700599371377485       19.03041444397646       19.12169537141416       19.20602099112406       19.57675461044624       19.94995805169281       20.32316150197762       20.70923403787695       21.08243749664968
                 0.0102         19.030421730653       19.12171152634873       19.20611720227754       19.57675467404849        19.9499581123294       20.32316156062195       20.70923409482731        21.0824375515495
                 0.0107       19.03042887695176       19.12172745304801       19.20621152466757       19.57675473737271       19.94995817343295       20.32316161907399         20.709234151162       21.08243760615287
    0.01119999999999999        19.0304358810232       19.12174314119027       19.20630393914342       19.57675480069693       19.94995823433636       20.32316167759012       20.70923420761982       21.08243766081553
    0.01169999999999999       19.03044274974932       19.12175859941591       19.20639453566489       19.57675486422968       19.94995829510637       20.32316173617034       20.70923426407764       21.08243771571534
    0.01219999999999999        19.0304494902341       19.12177383636525       19.20648339882194        19.5767549275539       19.94995835627662       20.32316179462239       20.70923432102801       21.08243777079301
    0.01269999999999998       19.03045610662167       19.12178886060534       19.20657060834267       19.57675499122567       19.94995841718004       20.32316185345898        20.7092343777321       21.08243782539639
    0.01319999999999998       19.03046260571995       19.12180367828712        19.2066562388037        19.5767550546194       19.94995847835028       20.32316191184693        20.7092344348056       21.08243788005905
    0.01369999999999998       19.03046899167303        19.1218182973918       19.20674036079055       19.57675511773509       19.94995853945381       20.32316197042716         20.709234491325       21.08243793495886
    0.01419999999999997       19.03047526973486       19.12183272392378       19.20682304017297       19.57675518126784       19.94995860035722       20.32316202926376       20.70923454784439       21.08243798962152
    0.01469999999999997       19.03048144501143       19.12184696439991        19.2069043390477       19.57675524445304       19.94995866132734       20.32316208784399       20.70923460430221       21.08243804469919
    0.01519999999999997       19.03048752112877       19.12186102533695       19.20698431515888       19.57675530784676       19.94995872223075       20.32316214648831       20.70923466063691       21.08243809965829
    0.01569999999999997       19.03049350289683        19.1218749123731       19.20706302530545          19.57675537131       19.94995878320086       20.32316220500444       20.70923471709472        21.0824381545581
    0.01619999999999998       19.03049939394161       19.12188863129292        19.2071405202668       19.57675543456471       19.94995884403757       20.32316226364876       20.70923477367568       21.08243820945791
                 0.0167       19.03050519751913       19.12190218707559       19.20721684886272       19.57675549809746       19.94995890487427       20.32316232222898        20.7092348305029       21.08243826429844
    0.01720000000000001       19.03051091747736        19.1219155855056       19.20729205860592        19.5767555615607       19.94995896564427       20.32316238106558       20.70923488720698       21.08243831937611
    0.01770000000000001       19.03051655714626       19.12192883148882       19.20736619164273       19.57675562495443       19.94995902694793       20.32316243977399       20.70923494372636       21.08243837409805
    0.01820000000000001       19.03052211933784        19.1219419291258       19.20743929019009       19.57675568848718       19.94995908798476       20.32316249854649       20.70923500079986       21.08243842911643
    0.01870000000000001       19.03052760627211       19.12195488251702       19.20751139312862       19.57675575195042       19.94995914902158       20.32316255699854       20.70923505750394       21.08243848413481
    0.01920000000000001       19.03053302179702       19.12196769539691       19.20758253665518       19.57675581534415       19.94995920992498       20.32316261577104       20.70923511402332       21.08243853897534
                 0.0197       19.03053836820655       19.12198037289085       19.20765275609528       19.57675587859885        19.9499592708951       20.32316267415899       20.70923517085054       21.08243859393443
    0.02020000000000001       19.03054364720274        19.1219929188796       19.20772208561316       19.57675594199258       19.94995933206534       20.32316273293149       20.70923522755462        21.0824386485971
    0.02070000000000002       19.03054886196752       19.12200533680464       19.20779055531239       19.57675600538631       19.94995939290204       20.32316279163991       20.70923528413557       21.08243870343762
    0.02120000000000003       19.03055401494286       19.12201763010742       19.20785819515039       19.57675606891906       19.94995945393887       20.32316285028422       20.70923534071651         21.082438758456
    0.02170000000000005        19.0305591071648       19.12202980274185       19.20792503348864       19.57675613231279       19.94995951490898       20.32316290899263        20.7092353972359       21.08243881300008
    0.02220000000000005        19.0305641412233       19.12204185785646       19.20799109694793       19.57675619570652       19.94995957581239       20.32316296770104       20.70923545387841       21.08243886819632
    0.02270000000000004       19.03056912022626       19.12205379735524       19.20805641120568       19.57675625916977       19.94995963691593       20.32316302628128       20.70923551045937       21.08243892309612
    0.02320000000000004       19.03057404424779       19.12206562599731       19.20812099976382       19.57675632291105       19.94995969775263       20.32316308505379       20.70923556716345       21.08243897799592
    0.02370000000000004        19.0305789159518       19.12207734524733       19.20818488626833       19.57675638630477       19.94995975852262       20.32316314389038       20.70923562399067       21.08243903283643
    0.02420000000000003       19.03058373578234       19.12208895847342       19.20824809269725       19.57675644962897       19.94995981962615        20.3231632025988       20.70923568044849       21.08243908773624
    0.02470000000000003       19.03058850655134       19.12210046831154       19.20831063979555       19.57675651281415       19.94995988039615       20.32316326117903       20.70923573715257       21.08243914275461
    0.02520000000000003       19.03059322899883       19.12211187739768       19.20837254772764       19.57675657648591       19.94995994136626       20.32316331950288       20.70923579379508       21.08243919747654
    0.02570000000000002       19.03059790482677       19.12212318917307       19.20843383542497        19.5767566397406       19.94996000246979       20.32316337801901       20.70923585031446       21.08243925237635
    0.02620000000000002       19.03060253507117       19.12213440480947       19.20849452109353       19.57675670299529       19.94996006323979       20.32316343653514       20.70923590714168       21.08243930727615
    0.02670000000000002       19.03060712099002       19.12214552657673        19.2085546209817       19.57675676645851        19.9499601241432       20.32316349537172       20.70923596372262       21.08243936247239
    0.02720000000000002       19.03061166450727        19.1221565566715       19.20861415213453       19.57675683006075       19.94996018504661       20.32316355401603       20.70923602036513       21.08243941713504
    0.02770000000000001       19.03061616599295       19.12216749729041       19.20867313087174       19.57675689352397       19.94996024588329       20.32316361272443       20.70923607700765       21.08243947215341
    0.02820000000000001       19.03062062737099       19.12217835106933       19.20873157220782       19.57675695684817       19.94996030678669       20.32316367124055       20.70923613371173       21.08243952699393
    0.02870000000000001       19.03062504878946       19.12218911939957       19.20878949035953       19.57675702051993       19.94996036755667       20.32316372982076       20.70923619053895       21.08243958201231
                 0.0292       19.03062943143232       19.12219980411167       19.20884689889082       19.57675708391364       19.94996042846007       20.32316378833689       20.70923624736617        21.0824396369714
                 0.0297       19.03063377729752       19.12221040791466       19.20890381107528       19.57675714730736       19.94996048949688       20.32316384710938       20.70923630388555       21.08243969204907
                 0.0302       19.03063808660708       19.12222093168737       19.20896024011359       19.57675721063156       19.94996055020016        20.3231639056896       20.70923636040493       21.08243974677101
    0.03070000000000002       19.03064236010101       19.12223137711387       19.20901619782894       19.57675727395575       19.94996061110355       20.32316396446209        20.7092364169243       21.08243980131509
    0.03120000000000003       19.03064659896327       19.12224174602468       19.20907169618908       19.57675733769702       19.94996067200695       20.32316402323459       20.70923647356681       21.08243985591846
    0.03170000000000005       19.03065080408186       19.12225204039669       19.20912674650912       19.57675740109073       19.94996073304376       20.32316408187889       20.70923653033246       21.08243991081826
    0.03220000000000006       19.03065497523484       19.12226226206039       19.20918135901666       19.57675746427591       19.94996079368033       20.32316414077957       20.70923658715968       21.08243996559948
    0.03270000000000008       19.03065911412412       19.12227241145529       19.20923554488116       19.57675752760011        19.9499608543169       20.32316419942387       20.70923664374063       21.08244002049928
    0.03320000000000009       19.03066322200767        19.1222824908511       19.20928931288004       19.57675759092431       19.94996091535371       20.32316425826046       20.70923670038314       21.08244007545836
     0.0337000000000001       19.03066729903353       19.12229250112656        19.2093426734574       19.57675765438752       19.94996097645723       20.32316431722522       20.70923675708722       21.08244013041744
    0.03420000000000012       19.03067134586769       19.12230244374607       19.20939563553503       19.57675771778124       19.94996103722721        20.3231643761259        20.7092368137913       21.08244018525795
    0.03470000000000013       19.03067536339812       19.12231232024726       19.20944820810695       19.57675778145299       19.94996109813061       20.32316443489839       20.70923687049538       21.08244024003917
    0.03520000000000015       19.03067935155088       19.12232213150883       19.20950039980451       19.57675784512475       19.94996115936754       20.32316449360679       20.70923692726103       21.08244029487967
    0.03570000000000016        19.0306833115839        19.1223318794344       19.20955221904142        19.5767579087965       19.94996122020422       20.32316455244338       20.70923698408825       21.08244034977947
    0.03620000000000016       19.03068724416317       19.12234156512232       19.20960367357887       19.57675797225972       19.94996128117432       20.32316461127996       20.70923704079233       21.08244040491641
    0.03670000000000014       19.03069114951073       19.12235118923165        19.2096547712503       19.57675803565344       19.94996134234455       20.32316467005246       20.70923709737328       21.08244045999407
    0.03720000000000011       19.03069502866252       19.12236075286074        19.2097055191642       19.57675809918617       19.94996140351477       20.32316472876085       20.70923715420049       21.08244051513101
    0.03770000000000009       19.03069888184055       19.12237025769355       19.20975592471873       19.57675816292744       19.94996146488512       20.32316478778971       20.70923721078144       21.08244057026795
    0.03820000000000007       19.03070270941484       19.12237970438914        19.2098059947321       19.57675822632115       19.94996152612206        20.3231648465622       20.70923726767022       21.08244062510846
    0.03870000000000005       19.03070651212537       19.12238909433864       19.20985573609476       19.57675828999291       19.94996158729228       20.32316490539878       20.70923732425117        21.0824406802454
    0.03920000000000003       19.03071029071211       19.12239842842072       19.20990515518969        19.5767583538732       19.94996164872933       20.32316496429947       20.70923738120152       21.08244073544164
    0.03970000000000001       19.03071404465714       19.12240770751406       19.20995425781993       19.57675841740593       19.94996171009968       20.32316502332833        20.7092374379056       21.08244079057858
    0.04020000000000001       19.03071777529237       19.12241693227769       19.21000305036813       19.57675848107768       19.94996177153673       20.32316508229309       20.70923749491752       21.08244084571552
    0.04070000000000002       19.03072148291382        19.1224261038099       19.21005153892685       19.57675854523601       19.94996183337403       20.32316514170651       20.70923755217572       21.08244090108962
    0.04120000000000004       19.03072516759551       19.12243522269652       19.21009972850149       19.57675860897728       19.94996189507791       20.32316520124811       20.70923760924921         21.082440956523
    0.04170000000000005       19.03072883029939       19.12244429054825       19.21014762554664        19.5767586730661       19.94996195704861       20.32316526078971       20.70923766626113       21.08244101195638
    0.04220000000000006       19.03073247146945       19.12245330795092       19.21019523492245       19.57675873708541       19.94996201901931       20.32316532052358        20.7092377239503        21.0824410672119
    0.04270000000000008       19.03073609073575       19.12246227563677       19.21024256214114       19.57675880138276       19.94996208125683       20.32316538032153       20.70923778096223       21.08244112288243
    0.04320000000000009       19.03073968950423       19.12247119448441       19.21028961170023       19.57675886561059       19.94996214382789       20.32316544037585       20.70923783858983        21.0824411783158
    0.04370000000000011        19.0307432673309       19.12248006507965       19.21033638903921       19.57675893018598       19.94996220586529       20.32316550010971       20.70923789634055       21.08244123380847
    0.04420000000000012       19.03074682488177        19.1224888880083       19.21038289829301       19.57675899483087       19.94996226816953        20.3231655604204       20.70923795402971       21.08244128953828
    0.04470000000000014       19.03075036208286       19.12249766466142       19.21042914461097       19.57675905968429       19.94996233074059       20.32316562085927       20.70923801221141       21.08244134538668
    0.04520000000000015       19.03075387960013       19.12250639555161       19.21047513191041        19.5767591244682       19.94996239351177       20.32316568136223       20.70923807026997       21.08244140129435
    0.04570000000000016       19.03075737795158       19.12251508082541       19.21052086534042       19.57675918959966       19.94996245688331       20.32316574199338       20.70923812882107       21.08244145732061
    0.04620000000000016        19.0307608572852       19.12252372180068       19.21056634816591       19.57675925493964        19.9499625207218         20.323165802945       20.70923818724905       21.08244151340615
    0.04670000000000014       19.03076431811899       19.12253231891678       19.21061158495602       19.57675932021013         19.949962584627       20.32316586408888       20.70923824616956       21.08244156996599
    0.04720000000000012       19.03076776052694       19.12254087283269        19.2106565797001       19.57675938638424        19.9499626485989       20.32316592542504       20.70923830496693       21.08244162664439
     0.0477000000000001       19.03077118495305       19.12254938413421       19.21070133595258        19.5767594521413        19.9499627135047       20.32316598733804       20.70923836401058       21.08244168355994
    0.04820000000000008       19.03077459132336        19.1225578534071       19.21074585820986       19.57675951838493       19.94996277861062       20.32316604944331       20.70923842373149       21.08244174094978
    0.04870000000000006       19.03077798008183        19.1225662807979       19.21079014951893       19.57675958497611       19.94996284418349       20.32316611193314       20.70923848351396       21.08244179822104
    0.04920000000000004       19.03078135182044        19.1225746684297       19.21083421386874       19.57675965205386        19.9499629100899       20.32316617474342       20.70923854366584       21.08244185620376
    0.04970000000000001       19.03078470631724       19.12258301586338       19.21087805459598       19.57675971954868       19.94996297659667       20.32316623845099       20.70923860406399       21.08244191412719
    0.05020000000000001       19.03078804409018       19.12259132353829        19.2109216747474       19.57675978739105       19.94996304330355       20.32316630254311       20.70923866513938       21.08244197252492
    0.05070000000000002        19.0307913652133       19.12259959182058       19.21096507794937       19.57675985551147       19.94996311041068       20.32316636708388       20.70923872670732        21.0824420311598
    0.05120000000000004       19.03079467064853       19.12260782151562       19.21100826724849       19.57675992390993        19.9499631785184        20.3231664320733       20.70923878839839        21.0824420901504
    0.05170000000000005       19.03079795980391       19.12261601350198       19.21105124612604       19.57675999321203       19.94996324722648       20.32316649789592       20.70923885095141       21.08244214961528
    0.05220000000000007       19.03080123297546        19.1226241681458       19.21109401726613       19.57676006286167       19.94996331646823       20.32316656435945       20.70923891362757       21.08244220973233
    0.05270000000000008       19.03080449031118       19.12263228574001       19.21113658422236       19.57676013265035       19.94996338657716       20.32316663127163       20.70923897698097       21.08244226996794
    0.05320000000000009       19.03080773218107       19.12264036723638       19.21117894938888       19.57676020341216       19.94996345782011       20.32316669901701       20.70923904150417       21.08244233079643
    0.05370000000000011         19.030810959843       19.12264841278142        19.2112211158119       19.57676027473007       19.94996352959671       20.32316676759559       20.70923910602736       21.08244239227708
    0.05420000000000012       19.03081417181714       19.12265642259485       19.21126308682741       19.57676034667357        19.9499636022405       20.32316683687917       20.70923917147407       21.08244245417274
    0.05470000000000014        19.0308173692874       19.12266439704279       19.21130486424968       19.57676041917315       19.94996367555137       20.32316690706004       20.70923923790588       21.08244251677985
    0.05520000000000015       19.03082055217981       19.12267233715021        19.2113464511972       19.57676049250686       19.94996374966272       20.32316697781774       20.70923930483022       21.08244258021696
    0.05570000000000017       19.03082372093833       19.12268024306362       19.21138784991886       19.57676056688323        19.9499638252416       20.32316704940864       20.70923937224712       21.08244264430624
    0.05620000000000015       19.03082687526701       19.12268811522233        19.2114290637504       19.57676064160716       19.94996390148756       20.32316712221728       20.70923944089535       21.08244270857338
    0.05670000000000013       19.03083001568382       19.12269595406568       19.21147009479567        19.5767607170957        19.9499639794679       20.32316719605139       20.70923951040555       21.08244277390768
    0.05720000000000011       19.03083314307668       19.12270376047221       19.21151094443395       19.57676079320984       19.94996405824872       20.32316727129555       20.70923958102397       21.08244284024986
    0.05770000000000009       19.03083625707566       19.12271153400277       19.21155161672531       19.57676086988006        19.9499641385638       20.32316734756517       20.70923965244277       21.08244290754064
    0.05820000000000007       19.03083935701482       19.12271927568232       19.21159211297645       19.57676094766245       19.94996422047985       20.32316742556528       20.70923972540077       21.08244297572072
    0.05870000000000005       19.03084244363411       19.12272698521814       19.21163243558087        19.5767610264875       19.94996430419698       20.32316750484723       20.70923979952856       21.08244304508653
    0.05920000000000003       19.03084551737751       19.12273466363517         19.211672586932       19.57676110642472       19.94996438918153       20.32316758573149       20.70923987501083       21.08244311534166
    0.05970000000000001       19.03084857817103       19.12274231144591       19.21171256906093       19.57676118775215        19.9499644752334       20.32316766789759       20.70923995203231       21.08244318725681
                 0.0602       19.03085162601469       19.12274992821123       19.21175238363644       19.57676127012224       19.94996456295294        20.3231677516019       20.70924003010045       21.08244326017985
    0.06070000000000002       19.03085466105649       19.12275751539531       19.21179203384883       19.57676135388255       19.94996465300721       20.32316783735715        20.7092401096462       21.08244333440721
    0.06120000000000003       19.03085768411037       19.12276507292499       19.21183152093204       19.57676143903306       19.94996474472916       20.32316792503516       20.70924019073117       21.08244340999816
    0.06170000000000005        19.0308606954723        19.1227726011664        19.2118708475691       19.57676152564328       19.94996483885255       20.32316801470003       20.70924027403257       21.08244348647842
    0.06220000000000006       19.03086369484633       19.12278009975357       19.21191001513876       19.57676161406077       19.94996493504386        20.3231681068004       20.70924035881161       21.08244356426298
    0.06270000000000005       19.03086668186251       19.12278756993107       19.21194902530959       19.57676170345142       19.94996503303625       20.32316820031079       20.70924044549924       21.08244364424117
    0.06319999999999999       19.03086965652086       19.12279501147935       19.21198788032974       19.57676179430179       19.94996513376362       20.32316829580804        20.7092405344649       21.08244372611655
    0.06369999999999994       19.03087261941332       19.12280242447169       19.21202658194014       19.57676188688993       19.94996523702585       20.32316839393307       20.70924062490818       21.08244380959268
    0.06419999999999988       19.03087557120583       19.12280980978661       19.21206513188168        19.5767619817024        19.9499653424227       20.32316849487814       20.70924071769104       21.08244389520313
    0.06469999999999985        19.0308785110105       19.12281716742418       19.21210353196766       19.57676207783558       19.94996545068794        20.3231685983869       20.70924081336759       21.08244398229576
    0.06519999999999987       19.03088143978927       19.12282449782369        19.2121417842287       19.57676217654065       19.94996556142134       20.32316870420297       20.70924091126059        21.0824440716413
    0.06569999999999988       19.03088435739414       19.12283180201007       19.21217989018821       19.57676227635789       19.94996567515655       20.32316881315957       20.70924101137003       21.08244416318046
     0.0661999999999999       19.03088726441706       19.12283907969057       19.21221785151448       19.57676237798241        19.9499657922938       20.32316892506439       20.70924111418846       21.08244425715037
    0.06669999999999991       19.03089016078406       19.12284633020641       19.21225566929616       19.57676248169224       19.94996591249958       20.32316903991744       20.70924121971587        21.0824443533732
    0.06719999999999993       19.03089304582922       19.12285355465573       19.21229334592597       19.57676258776544       19.94996603557373       20.32316915759055       20.70924132832168       21.08244445232322